LAMMPS Description

     4  atoms
     0  bonds
     0  angles
     0  dihedrals
     0  impropers

     2  atom types

  -4 4 xlo xhi
  -4 4 ylo yhi
  -4 4 zlo zhi

Masses

      1	1	
      2 2

Atoms # full

1 1 1 1.0 0.0 0.0 0.0
2 2 2 -1.0 0.5 0.0 0.0
3 3 1 1.0 0.5 0.5 0.0
4 4 2 -1.0 0.0 0.5 0.0
